version 2
run ARPTest-0-20100504-16:35:14-3103
attr configname ARPTest
attr datetime 20100504-16:35:14
attr experiment ARPTest
attr inifile omnetpp.ini
attr iterationvars ""
attr iterationvars2 $repetition=0
attr measurement ""
attr network ARPTest
attr processid 3103
attr repetition 0
attr replication #0
attr resultdir results
attr runnumber 0
attr seedset 0

vector 158  ARPTest.client.tcp  tcpRcvQueueBytes  ETV
vector 146  ARPTest.client.tcp  "advertised window"  ETV
vector 145  ARPTest.client.tcp  "receive window"  ETV
vector 148  ARPTest.client.tcp  "sent ack"  ETV
vector 4  ARPTest.client.eth[0].mac  framesSent  ETV
vector 6  ARPTest.client.eth[0].mac  bytesSent  ETV
vector 50  ARPTest.switch.mac[0]  framesReceivedOK  ETV
vector 52  ARPTest.switch.mac[0]  bytesReceivedOK  ETV
vector 56  ARPTest.switch.mac[0]  framesPassedToHL  ETV
vector 48  ARPTest.switch.relayUnit  "buffer level"  ETV
vector 61  ARPTest.switch.mac[1]  framesSent  ETV
vector 63  ARPTest.switch.mac[1]  bytesSent  ETV
vector 21  ARPTest.host1.eth[0].mac  framesReceivedOK  ETV
vector 23  ARPTest.host1.eth[0].mac  bytesReceivedOK  ETV
vector 27  ARPTest.host1.eth[0].mac  framesPassedToHL  ETV
vector 73  ARPTest.switch.mac[2]  framesSent  ETV
vector 75  ARPTest.switch.mac[2]  bytesSent  ETV
vector 37  ARPTest.host2.eth[0].mac  framesReceivedOK  ETV
vector 39  ARPTest.host2.eth[0].mac  bytesReceivedOK  ETV
vector 43  ARPTest.host2.eth[0].mac  framesPassedToHL  ETV
vector 85  ARPTest.switch.mac[3]  framesSent  ETV
vector 87  ARPTest.switch.mac[3]  bytesSent  ETV
vector 106  ARPTest.router.eth[0].mac  framesReceivedOK  ETV
vector 108  ARPTest.router.eth[0].mac  bytesReceivedOK  ETV
vector 112  ARPTest.router.eth[0].mac  framesPassedToHL  ETV
vector 105  ARPTest.router.eth[0].mac  framesSent  ETV
vector 107  ARPTest.router.eth[0].mac  bytesSent  ETV
vector 86  ARPTest.switch.mac[3]  framesReceivedOK  ETV
vector 88  ARPTest.switch.mac[3]  bytesReceivedOK  ETV
vector 92  ARPTest.switch.mac[3]  framesPassedToHL  ETV
vector 49  ARPTest.switch.mac[0]  framesSent  ETV
vector 51  ARPTest.switch.mac[0]  bytesSent  ETV
vector 5  ARPTest.client.eth[0].mac  framesReceivedOK  ETV
vector 7  ARPTest.client.eth[0].mac  bytesReceivedOK  ETV
vector 11  ARPTest.client.eth[0].mac  framesPassedToHL  ETV
vector 126  ARPTest.server.tcp  "rcvd seq"  ETV
vector 127  ARPTest.server.tcp  "rcvd ack"  ETV
vector 123  ARPTest.server.tcp  "advertised window"  ETV
vector 121  ARPTest.server.tcp  "send window"  ETV
vector 135  ARPTest.server.tcp  tcpRcvQueueBytes  ETV
vector 122  ARPTest.server.tcp  "receive window"  ETV
vector 125  ARPTest.server.tcp  "sent ack"  ETV
vector 149  ARPTest.client.tcp  "rcvd seq"  ETV
vector 150  ARPTest.client.tcp  "rcvd ack"  ETV
vector 144  ARPTest.client.tcp  "send window"  ETV
vector 128  ARPTest.server.tcp  "unacked bytes"  ETV
vector 137  ARPTest.server.tcp  cwnd  ETV
vector 129  ARPTest.server.tcp  "rcvd dupAcks"  ETV
vector 147  ARPTest.client.tcp  "sent seq"  ETV
vector 151  ARPTest.client.tcp  "unacked bytes"  ETV
vector 124  ARPTest.server.tcp  "sent seq"  ETV
vector 119  ARPTest.server.ppp[0].queue  "queue length"  ETV
vector 97  ARPTest.net.ppp[0].queue  "queue length"  ETV
vector 103  ARPTest.router.eth[0].queue  "queue length"  ETV
vector 162  ARPTest.client.tcp  "measured RTT"  ETV
vector 163  ARPTest.client.tcp  "smoothed RTT"  ETV
vector 164  ARPTest.client.tcp  RTTVAR  ETV
vector 165  ARPTest.client.tcp  RTO  ETV
vector 160  ARPTest.client.tcp  cwnd  ETV
vector 152  ARPTest.client.tcp  "rcvd dupAcks"  ETV
vector 2  ARPTest.client.eth[0].queue  "queue length"  ETV
vector 139  ARPTest.server.tcp  "measured RTT"  ETV
vector 140  ARPTest.server.tcp  "smoothed RTT"  ETV
vector 141  ARPTest.server.tcp  RTTVAR  ETV
vector 142  ARPTest.server.tcp  RTO  ETV
vector 3  ARPTest.client.eth[0].queue  drops  ETV
vector 104  ARPTest.router.eth[0].queue  drops  ETV
vector 133  ARPTest.server.tcp  "rcvd oooseg"  ETV
vector 156  ARPTest.client.tcp  "rcvd oooseg"  ETV
2	272	1.1011444875	1
2	288	1.1016356875	0
2	312	1.1020596875	1
2	317	1.1021268875	0
2	403	1.1026180875	1
2	404	1.1026180875	2
2	405	1.1026180875	1
2	560	1.102780175	2
2	561	1.102780175	3
2	567	1.1031092875	2
2	589	1.1036004875	1
2	647	1.103695375	2
2	654	1.1040916875	1
2	712	1.104186575	2
2	719	1.1045828875	1
2	762	1.1046500875	0
2	786	1.104677775	1
2	793	1.1047172875	0
2	993	1.105236175	1
2	994	1.105236175	2
2	995	1.105236175	1
2	1064	1.105303375	2
2	1065	1.105303375	3
2	1124	1.105370575	4
2	1125	1.105370575	5
2	1145	1.105437775	6
2	1146	1.105437775	7
2	1158	1.105727375	6
2	1184	1.106151375	7
2	1191	1.106218575	6
2	1249	1.106642575	7
2	1256	1.106709775	6
2	1314	1.107133775	7
2	1321	1.107200975	6
2	1379	1.107624975	7
2	1386	1.107692175	6
2	1444	1.108116175	7
2	1451	1.108183375	6
2	1509	1.108607375	7
2	1516	1.108674575	6
2	1574	1.109098575	7
2	1586	1.109165775	6
2	1638	1.109232975	5
2	1656	1.109300175	4
2	1674	1.109367375	3
2	1692	1.109434575	2
2	1710	1.109501775	1
2	1726	1.109568975	0
2	1747	1.109589775	1
2	1750	1.109636175	0
2	1771	1.109656975	1
2	1772	1.109656975	2
2	1813	1.109703375	1
2	1834	1.109724175	2
2	1835	1.109724175	3
2	1905	1.109791375	4
2	1906	1.109791375	5
2	1967	1.109858575	6
2	1968	1.109858575	7
2	2029	1.109925775	8
2	2030	1.109925775	9
2	2091	1.109992975	10
2	2241	1.110194575	9
2	2293	1.110685775	8
2	2351	1.1107342625	9
2	2358	1.111176975	8
2	2416	1.1112254625	9
2	2423	1.111668175	8
2	2481	1.1117166625	9
2	2488	1.112159375	8
2	2546	1.1122078625	9
2	2553	1.112650575	8
2	2611	1.1126990625	9
2	2618	1.113141775	8
2	2676	1.1131902625	9
2	2683	1.113632975	8
2	2741	1.1136814625	9
2	2748	1.114124175	8
2	2806	1.1141726625	9
2	2813	1.114615375	8
2	2871	1.1146638625	9
2	2878	1.115106575	8
2	2936	1.1151550625	9
2	2943	1.115173775	8
2	2961	1.115240975	7
2	2979	1.115308175	6
2	2997	1.115375375	5
2	3015	1.115442575	4
2	3033	1.115509775	3
2	3051	1.115576975	2
2	3103	1.115644175	1
2	3120	1.1156462625	2
2	3166	1.115711375	1
2	3182	1.1157134625	2
2	3228	1.115778575	1
2	3244	1.1157806625	2
2	3290	1.115845775	1
2	3306	1.1158478625	2
2	3361	1.1159150625	3
2	3405	1.1159822625	4
2	3449	1.1160494625	5
2	3493	1.1161166625	6
2	3537	1.1161838625	7
2	3581	1.1162510625	8
2	3625	1.1163182625	9
2	3628	1.116336975	8
2	3683	1.1163854625	9
2	3690	1.116828175	8
2	3745	1.1168766625	9
2	3752	1.117319375	8
2	3807	1.1173678625	9
2	3814	1.117810575	8
2	3869	1.1178590625	9
2	3876	1.118301775	8
2	3931	1.1183502625	9
2	3938	1.118792975	8
2	3993	1.1188414625	9
2	4000	1.119284175	8
2	4055	1.1193326625	9
2	4062	1.119775375	8
3	2092	1.109992975	1
3	2150	1.110060175	1
3	2208	1.110127375	1
4	25	1.0000672	1
4	79	1.00034	2
4	142	1.0006199875	3
4	177	1.1004912	4
4	288	1.1016356875	5
4	317	1.1021268875	6
4	364	1.1021940875	7
4	405	1.1026180875	8
4	567	1.1031092875	9
4	589	1.1036004875	10
4	654	1.1040916875	11
4	719	1.1045828875	12
4	762	1.1046500875	13
4	793	1.1047172875	14
4	811	1.1047844875	15
4	995	1.105236175	16
4	1158	1.105727375	17
4	1191	1.106218575	18
4	1256	1.106709775	19
4	1321	1.107200975	20
4	1386	1.107692175	21
4	1451	1.108183375	22
4	1516	1.108674575	23
4	1586	1.109165775	24
4	1638	1.109232975	25
4	1656	1.109300175	26
4	1674	1.109367375	27
4	1692	1.109434575	28
4	1710	1.109501775	29
4	1726	1.109568975	30
4	1750	1.109636175	31
4	1813	1.109703375	32
4	2241	1.110194575	33
4	2293	1.110685775	34
4	2358	1.111176975	35
4	2423	1.111668175	36
4	2488	1.112159375	37
4	2553	1.112650575	38
4	2618	1.113141775	39
4	2683	1.113632975	40
4	2748	1.114124175	41
4	2813	1.114615375	42
4	2878	1.115106575	43
4	2943	1.115173775	44
4	2961	1.115240975	45
4	2979	1.115308175	46
4	2997	1.115375375	47
4	3015	1.115442575	48
4	3033	1.115509775	49
4	3051	1.115576975	50
4	3103	1.115644175	51
4	3166	1.115711375	52
4	3228	1.115778575	53
4	3290	1.115845775	54
4	3628	1.116336975	55
4	3690	1.116828175	56
4	3752	1.117319375	57
4	3814	1.117810575	58
4	3876	1.118301775	59
4	3938	1.118792975	60
4	4000	1.119284175	61
4	4062	1.119775375	62
5	68	1.0002728	1
5	128	1.0005527875	2
5	260	1.1011444875	3
5	303	1.1020596875	4
5	375	1.1025508875	5
5	392	1.1026180875	6
5	549	1.102780175	7
5	638	1.103695375	8
5	703	1.104186575	9
5	777	1.104677775	10
5	915	1.105168975	11
5	982	1.105236175	12
5	1053	1.105303375	13
5	1113	1.105370575	14
5	1134	1.105437775	15
5	1175	1.106151375	16
5	1240	1.106642575	17
5	1305	1.107133775	18
5	1370	1.107624975	19
5	1435	1.108116175	20
5	1500	1.108607375	21
5	1565	1.109098575	22
5	1738	1.109589775	23
5	1760	1.109656975	24
5	1823	1.109724175	25
5	1894	1.109791375	26
5	1956	1.109858575	27
5	2018	1.109925775	28
5	2080	1.109992975	29
5	2142	1.110060175	30
5	2200	1.110127375	31
5	2342	1.1107342625	32
5	2407	1.1112254625	33
5	2472	1.1117166625	34
5	2537	1.1122078625	35
5	2602	1.1126990625	36
5	2667	1.1131902625	37
5	2732	1.1136814625	38
5	2797	1.1141726625	39
5	2862	1.1146638625	40
5	2927	1.1151550625	41
5	3111	1.1156462625	42
5	3174	1.1157134625	43
5	3236	1.1157806625	44
5	3298	1.1158478625	45
5	3353	1.1159150625	46
5	3397	1.1159822625	47
5	3441	1.1160494625	48
5	3485	1.1161166625	49
5	3529	1.1161838625	50
5	3573	1.1162510625	51
5	3617	1.1163182625	52
5	3675	1.1163854625	53
5	3737	1.1168766625	54
5	3799	1.1173678625	55
5	3861	1.1178590625	56
5	3923	1.1183502625	57
5	3985	1.1188414625	58
5	4047	1.1193326625	59
6	25	1.0000672	64
6	79	1.00034	128
6	142	1.0006199875	192
6	177	1.1004912	786
6	288	1.1016356875	1380
6	317	1.1021268875	1974
6	364	1.1021940875	2038
6	405	1.1026180875	2102
6	567	1.1031092875	2696
6	589	1.1036004875	3290
6	654	1.1040916875	3884
6	719	1.1045828875	4478
6	762	1.1046500875	4542
6	793	1.1047172875	4606
6	811	1.1047844875	4670
6	995	1.105236175	4734
6	1158	1.105727375	5328
6	1191	1.106218575	5922
6	1256	1.106709775	6516
6	1321	1.107200975	7110
6	1386	1.107692175	7704
6	1451	1.108183375	8298
6	1516	1.108674575	8892
6	1586	1.109165775	9486
6	1638	1.109232975	9550
6	1656	1.109300175	9614
6	1674	1.109367375	9678
6	1692	1.109434575	9742
6	1710	1.109501775	9806
6	1726	1.109568975	9870
6	1750	1.109636175	9934
6	1813	1.109703375	9998
6	2241	1.110194575	10592
6	2293	1.110685775	11186
6	2358	1.111176975	11780
6	2423	1.111668175	12374
6	2488	1.112159375	12968
6	2553	1.112650575	13562
6	2618	1.113141775	14156
6	2683	1.113632975	14750
6	2748	1.114124175	15344
6	2813	1.114615375	15938
6	2878	1.115106575	16532
6	2943	1.115173775	16596
6	2961	1.115240975	16660
6	2979	1.115308175	16724
6	2997	1.115375375	16788
6	3015	1.115442575	16852
6	3033	1.115509775	16916
6	3051	1.115576975	16980
6	3103	1.115644175	17044
6	3166	1.115711375	17108
6	3228	1.115778575	17172
6	3290	1.115845775	17236
6	3628	1.116336975	17830
6	3690	1.116828175	18424
6	3752	1.117319375	19018
6	3814	1.117810575	19612
6	3876	1.118301775	20206
6	3938	1.118792975	20800
6	4000	1.119284175	21394
6	4062	1.119775375	21988
7	68	1.0002728	64
7	128	1.0005527875	128
7	260	1.1011444875	192
7	303	1.1020596875	786
7	375	1.1025508875	1380
7	392	1.1026180875	1444
7	549	1.102780175	1508
7	638	1.103695375	2102
7	703	1.104186575	2696
7	777	1.104677775	3290
7	915	1.105168975	3884
7	982	1.105236175	3948
7	1053	1.105303375	4012
7	1113	1.105370575	4076
7	1134	1.105437775	4140
7	1175	1.106151375	4734
7	1240	1.106642575	5328
7	1305	1.107133775	5922
7	1370	1.107624975	6516
7	1435	1.108116175	7110
7	1500	1.108607375	7704
7	1565	1.109098575	8298
7	1738	1.109589775	8892
7	1760	1.109656975	8956
7	1823	1.109724175	9020
7	1894	1.109791375	9084
7	1956	1.109858575	9148
7	2018	1.109925775	9212
7	2080	1.109992975	9276
7	2142	1.110060175	9340
7	2200	1.110127375	9404
7	2342	1.1107342625	9998
7	2407	1.1112254625	10592
7	2472	1.1117166625	11186
7	2537	1.1122078625	11780
7	2602	1.1126990625	12374
7	2667	1.1131902625	12968
7	2732	1.1136814625	13562
7	2797	1.1141726625	14156
7	2862	1.1146638625	14750
7	2927	1.1151550625	15344
7	3111	1.1156462625	15938
7	3174	1.1157134625	16002
7	3236	1.1157806625	16066
7	3298	1.1158478625	16130
7	3353	1.1159150625	16194
7	3397	1.1159822625	16258
7	3441	1.1160494625	16322
7	3485	1.1161166625	16386
7	3529	1.1161838625	16450
7	3573	1.1162510625	16514
7	3617	1.1163182625	16578
7	3675	1.1163854625	16642
7	3737	1.1168766625	17236
7	3799	1.1173678625	17830
7	3861	1.1178590625	18424
7	3923	1.1183502625	19018
7	3985	1.1188414625	19612
7	4047	1.1193326625	20206
11	68	1.0002728	1
11	128	1.0005527875	2
11	260	1.1011444875	3
11	303	1.1020596875	4
11	375	1.1025508875	5
11	392	1.1026180875	6
11	549	1.102780175	7
11	638	1.103695375	8
11	703	1.104186575	9
11	777	1.104677775	10
11	915	1.105168975	11
11	982	1.105236175	12
11	1053	1.105303375	13
11	1113	1.105370575	14
11	1134	1.105437775	15
11	1175	1.106151375	16
11	1240	1.106642575	17
11	1305	1.107133775	18
11	1370	1.107624975	19
11	1435	1.108116175	20
11	1500	1.108607375	21
11	1565	1.109098575	22
11	1738	1.109589775	23
11	1760	1.109656975	24
11	1823	1.109724175	25
11	1894	1.109791375	26
11	1956	1.109858575	27
11	2018	1.109925775	28
11	2080	1.109992975	29
11	2142	1.110060175	30
11	2200	1.110127375	31
11	2342	1.1107342625	32
11	2407	1.1112254625	33
11	2472	1.1117166625	34
11	2537	1.1122078625	35
11	2602	1.1126990625	36
11	2667	1.1131902625	37
11	2732	1.1136814625	38
11	2797	1.1141726625	39
11	2862	1.1146638625	40
11	2927	1.1151550625	41
11	3111	1.1156462625	42
11	3174	1.1157134625	43
11	3236	1.1157806625	44
11	3298	1.1158478625	45
11	3353	1.1159150625	46
11	3397	1.1159822625	47
11	3441	1.1160494625	48
11	3485	1.1161166625	49
11	3529	1.1161838625	50
11	3573	1.1162510625	51
11	3617	1.1163182625	52
11	3675	1.1163854625	53
11	3737	1.1168766625	54
11	3799	1.1173678625	55
11	3861	1.1178590625	56
11	3923	1.1183502625	57
11	3985	1.1188414625	58
11	4047	1.1193326625	59
21	39	1.0001364	1
23	39	1.0001364	64
27	39	1.0001364	1
37	45	1.0001364	1
39	45	1.0001364	64
43	45	1.0001364	1
48	27	1.0000672	64
48	28	1.0000692	0
48	62	1.0002036	64
48	63	1.0002056	0
48	81	1.00034	64
48	82	1.000342	0
48	122	1.0004835875	64
48	123	1.0004855875	0
48	144	1.0006199875	64
48	145	1.0006219875	0
48	179	1.1004912	594
48	180	1.1004932	0
48	252	1.1010752875	64
48	253	1.1010772875	0
48	281	1.1015664875	594
48	282	1.1015684875	0
48	292	1.1016356875	594
48	293	1.1016376875	0
48	301	1.1020576875	594
48	313	1.1020596875	0
48	321	1.1021268875	594
48	328	1.1021288875	0
48	366	1.1021940875	64
48	367	1.1021960875	0
48	371	1.102219775	64
48	372	1.102221775	0
48	409	1.1026180875	64
48	416	1.1026200875	0
48	491	1.102710975	64
48	498	1.102712975	0
48	571	1.1031092875	594
48	572	1.1031112875	0
48	582	1.103202175	594
48	583	1.103204175	0
48	593	1.1036004875	594
48	600	1.1036024875	0
48	636	1.103693375	594
48	648	1.103695375	0
48	658	1.1040916875	594
48	665	1.1040936875	0
48	701	1.104184575	594
48	713	1.104186575	0
48	723	1.1045828875	594
48	730	1.1045848875	0
48	766	1.1046500875	64
48	767	1.1046520875	0
48	775	1.104675775	594
48	787	1.104677775	0
48	797	1.1047172875	64
48	798	1.1047192875	0
48	806	1.104742975	64
48	807	1.104744975	0
48	813	1.1047844875	64
48	814	1.1047864875	0
48	820	1.104810175	64
48	821	1.104812175	0
48	827	1.104877375	64
48	828	1.104879375	0
48	907	1.105166975	64
48	927	1.105168975	0
48	999	1.105236175	64
48	1000	1.105238175	0
48	1151	1.105658175	594
48	1152	1.105660175	0
48	1162	1.105727375	594
48	1163	1.105729375	0
48	1173	1.106149375	594
48	1185	1.106151375	0
48	1195	1.106218575	594
48	1202	1.106220575	0
48	1238	1.106640575	594
48	1250	1.106642575	0
48	1260	1.106709775	594
48	1267	1.106711775	0
48	1303	1.107131775	594
48	1315	1.107133775	0
48	1325	1.107200975	594
48	1332	1.107202975	0
48	1368	1.107622975	594
48	1380	1.107624975	0
48	1390	1.107692175	594
48	1397	1.107694175	0
48	1433	1.108114175	594
48	1445	1.108116175	0
48	1455	1.108183375	594
48	1462	1.108185375	0
48	1498	1.108605375	594
48	1510	1.108607375	0
48	1520	1.108674575	594
48	1527	1.108676575	0
48	1563	1.109096575	594
48	1575	1.109098575	0
48	1585	1.109163775	64
48	1590	1.109165775	658
48	1591	1.109165775	594
48	1599	1.109167775	0
48	1637	1.109230975	64
48	1642	1.109232975	128
48	1643	1.109232975	64
48	1645	1.109234975	0
48	1655	1.109298175	64
48	1660	1.109300175	128
48	1661	1.109300175	64
48	1663	1.109302175	0
48	1673	1.109365375	64
48	1678	1.109367375	128
48	1679	1.109367375	64
48	1681	1.109369375	0
48	1691	1.109432575	64
48	1696	1.109434575	128
48	1697	1.109434575	64
48	1699	1.109436575	0
48	1709	1.109499775	64
48	1714	1.109501775	128
48	1715	1.109501775	64
48	1717	1.109503775	0
48	1725	1.109566975	64
48	1730	1.109568975	128
48	1731	1.109568975	64
48	1733	1.109570975	0
48	1754	1.109636175	64
48	1755	1.109638175	0
48	1817	1.109703375	64
48	1818	1.109705375	0
48	1877	1.1097498625	64
48	1884	1.1097518625	0
48	2245	1.110194575	594
48	2252	1.110196575	0
48	2286	1.1102410625	594
48	2287	1.1102430625	0
48	2297	1.110685775	594
48	2304	1.110687775	0
48	2340	1.1107322625	594
48	2352	1.1107342625	0
48	2362	1.111176975	594
48	2369	1.111178975	0
48	2405	1.1112234625	594
48	2417	1.1112254625	0
48	2427	1.111668175	594
48	2434	1.111670175	0
48	2470	1.1117146625	594
48	2482	1.1117166625	0
48	2492	1.112159375	594
48	2499	1.112161375	0
48	2535	1.1122058625	594
48	2547	1.1122078625	0
48	2557	1.112650575	594
48	2564	1.112652575	0
48	2600	1.1126970625	594
48	2612	1.1126990625	0
48	2622	1.113141775	594
48	2629	1.113143775	0
48	2665	1.1131882625	594
48	2677	1.1131902625	0
48	2687	1.113632975	594
48	2694	1.113634975	0
48	2730	1.1136794625	594
48	2742	1.1136814625	0
48	2752	1.114124175	594
48	2759	1.114126175	0
48	2795	1.1141706625	594
48	2807	1.1141726625	0
48	2817	1.114615375	594
48	2824	1.114617375	0
48	2860	1.1146618625	594
48	2872	1.1146638625	0
48	2882	1.115106575	594
48	2889	1.115108575	0
48	2925	1.1151530625	594
48	2937	1.1151550625	0
48	2947	1.115173775	64
48	2948	1.115175775	0
48	2956	1.1152202625	64
48	2957	1.1152222625	0
48	2965	1.115240975	64
48	2966	1.115242975	0
48	2974	1.1152874625	64
48	2975	1.1152894625	0
48	2983	1.115308175	64
48	2984	1.115310175	0
48	2992	1.1153546625	64
48	2993	1.1153566625	0
48	3001	1.115375375	64
48	3002	1.115377375	0
48	3010	1.1154218625	64
48	3011	1.1154238625	0
48	3019	1.115442575	64
48	3020	1.115444575	0
48	3028	1.1154890625	64
48	3029	1.1154910625	0
48	3037	1.115509775	64
48	3038	1.115511775	0
48	3046	1.1155562625	64
48	3047	1.1155582625	0
48	3055	1.115576975	64
48	3056	1.115578975	0
48	3094	1.1156234625	64
48	3099	1.1156254625	0
48	3107	1.115644175	64
48	3108	1.115646175	0
48	3157	1.1156906625	64
48	3162	1.1156926625	0
48	3170	1.115711375	64
48	3171	1.115713375	0
48	3219	1.1157578625	64
48	3224	1.1157598625	0
48	3232	1.115778575	64
48	3233	1.115780575	0
48	3281	1.1158250625	64
48	3286	1.1158270625	0
48	3294	1.115845775	64
48	3295	1.115847775	0
48	3343	1.1158922625	64
48	3348	1.1158942625	0
48	3632	1.116336975	594
48	3639	1.116338975	0
48	3673	1.1163834625	594
48	3684	1.1163854625	0
48	3694	1.116828175	594
48	3701	1.116830175	0
48	3735	1.1168746625	594
48	3746	1.1168766625	0
48	3756	1.117319375	594
48	3763	1.117321375	0
48	3797	1.1173658625	594
48	3808	1.1173678625	0
48	3818	1.117810575	594
48	3825	1.117812575	0
48	3859	1.1178570625	594
48	3870	1.1178590625	0
48	3880	1.118301775	594
48	3887	1.118303775	0
48	3921	1.1183482625	594
48	3932	1.1183502625	0
48	3942	1.118792975	594
48	3949	1.118794975	0
48	3983	1.1188394625	594
48	3994	1.1188414625	0
48	4004	1.119284175	594
48	4011	1.119286175	0
48	4045	1.1193306625	594
48	4056	1.1193326625	0
49	67	1.0002728	1
49	127	1.0005527875	2
49	259	1.1011444875	3
49	302	1.1020596875	4
49	374	1.1025508875	5
49	391	1.1026180875	6
49	548	1.102780175	7
49	637	1.103695375	8
49	702	1.104186575	9
49	776	1.104677775	10
49	914	1.105168975	11
49	981	1.105236175	12
49	1052	1.105303375	13
49	1112	1.105370575	14
49	1133	1.105437775	15
49	1174	1.106151375	16
49	1239	1.106642575	17
49	1304	1.107133775	18
49	1369	1.107624975	19
49	1434	1.108116175	20
49	1499	1.108607375	21
49	1564	1.109098575	22
49	1737	1.109589775	23
49	1759	1.109656975	24
49	1822	1.109724175	25
49	1893	1.109791375	26
49	1955	1.109858575	27
49	2017	1.109925775	28
49	2079	1.109992975	29
49	2141	1.110060175	30
49	2199	1.110127375	31
49	2341	1.1107342625	32
49	2406	1.1112254625	33
49	2471	1.1117166625	34
49	2536	1.1122078625	35
49	2601	1.1126990625	36
49	2666	1.1131902625	37
49	2731	1.1136814625	38
49	2796	1.1141726625	39
49	2861	1.1146638625	40
49	2926	1.1151550625	41
49	3110	1.1156462625	42
49	3173	1.1157134625	43
49	3235	1.1157806625	44
49	3297	1.1158478625	45
49	3352	1.1159150625	46
49	3396	1.1159822625	47
49	3440	1.1160494625	48
49	3484	1.1161166625	49
49	3528	1.1161838625	50
49	3572	1.1162510625	51
49	3616	1.1163182625	52
49	3674	1.1163854625	53
49	3736	1.1168766625	54
49	3798	1.1173678625	55
49	3860	1.1178590625	56
49	3922	1.1183502625	57
49	3984	1.1188414625	58
49	4046	1.1193326625	59
50	26	1.0000672	1
50	80	1.00034	2
50	143	1.0006199875	3
50	178	1.1004912	4
50	291	1.1016356875	5
50	320	1.1021268875	6
50	365	1.1021940875	7
50	408	1.1026180875	8
50	570	1.1031092875	9
50	592	1.1036004875	10
50	657	1.1040916875	11
50	722	1.1045828875	12
50	765	1.1046500875	13
50	796	1.1047172875	14
50	812	1.1047844875	15
50	998	1.105236175	16
50	1161	1.105727375	17
50	1194	1.106218575	18
50	1259	1.106709775	19
50	1324	1.107200975	20
50	1389	1.107692175	21
50	1454	1.108183375	22
50	1519	1.108674575	23
50	1589	1.109165775	24
50	1641	1.109232975	25
50	1659	1.109300175	26
50	1677	1.109367375	27
50	1695	1.109434575	28
50	1713	1.109501775	29
50	1729	1.109568975	30
50	1753	1.109636175	31
50	1816	1.109703375	32
50	2244	1.110194575	33
50	2296	1.110685775	34
50	2361	1.111176975	35
50	2426	1.111668175	36
50	2491	1.112159375	37
50	2556	1.112650575	38
50	2621	1.113141775	39
50	2686	1.113632975	40
50	2751	1.114124175	41
50	2816	1.114615375	42
50	2881	1.115106575	43
50	2946	1.115173775	44
50	2964	1.115240975	45
50	2982	1.115308175	46
50	3000	1.115375375	47
50	3018	1.115442575	48
50	3036	1.115509775	49
50	3054	1.115576975	50
50	3106	1.115644175	51
50	3169	1.115711375	52
50	3231	1.115778575	53
50	3293	1.115845775	54
50	3631	1.116336975	55
50	3693	1.116828175	56
50	3755	1.117319375	57
50	3817	1.117810575	58
50	3879	1.118301775	59
50	3941	1.118792975	60
50	4003	1.119284175	61
51	67	1.0002728	64
51	127	1.0005527875	128
51	259	1.1011444875	192
51	302	1.1020596875	786
51	374	1.1025508875	1380
51	391	1.1026180875	1444
51	548	1.102780175	1508
51	637	1.103695375	2102
51	702	1.104186575	2696
51	776	1.104677775	3290
51	914	1.105168975	3884
51	981	1.105236175	3948
51	1052	1.105303375	4012
51	1112	1.105370575	4076
51	1133	1.105437775	4140
51	1174	1.106151375	4734
51	1239	1.106642575	5328
51	1304	1.107133775	5922
51	1369	1.107624975	6516
51	1434	1.108116175	7110
51	1499	1.108607375	7704
51	1564	1.109098575	8298
51	1737	1.109589775	8892
51	1759	1.109656975	8956
51	1822	1.109724175	9020
51	1893	1.109791375	9084
51	1955	1.109858575	9148
51	2017	1.109925775	9212
51	2079	1.109992975	9276
51	2141	1.110060175	9340
51	2199	1.110127375	9404
51	2341	1.1107342625	9998
51	2406	1.1112254625	10592
51	2471	1.1117166625	11186
51	2536	1.1122078625	11780
51	2601	1.1126990625	12374
51	2666	1.1131902625	12968
51	2731	1.1136814625	13562
51	2796	1.1141726625	14156
51	2861	1.1146638625	14750
51	2926	1.1151550625	15344
51	3110	1.1156462625	15938
51	3173	1.1157134625	16002
51	3235	1.1157806625	16066
51	3297	1.1158478625	16130
51	3352	1.1159150625	16194
51	3396	1.1159822625	16258
51	3440	1.1160494625	16322
51	3484	1.1161166625	16386
51	3528	1.1161838625	16450
51	3572	1.1162510625	16514
51	3616	1.1163182625	16578
51	3674	1.1163854625	16642
51	3736	1.1168766625	17236
51	3798	1.1173678625	17830
51	3860	1.1178590625	18424
51	3922	1.1183502625	19018
51	3984	1.1188414625	19612
51	4046	1.1193326625	20206
52	26	1.0000672	64
52	80	1.00034	128
52	143	1.0006199875	192
52	178	1.1004912	786
52	291	1.1016356875	1380
52	320	1.1021268875	1974
52	365	1.1021940875	2038
52	408	1.1026180875	2102
52	570	1.1031092875	2696
52	592	1.1036004875	3290
52	657	1.1040916875	3884
52	722	1.1045828875	4478
52	765	1.1046500875	4542
52	796	1.1047172875	4606
52	812	1.1047844875	4670
52	998	1.105236175	4734
52	1161	1.105727375	5328
52	1194	1.106218575	5922
52	1259	1.106709775	6516
52	1324	1.107200975	7110
52	1389	1.107692175	7704
52	1454	1.108183375	8298
52	1519	1.108674575	8892
52	1589	1.109165775	9486
52	1641	1.109232975	9550
52	1659	1.109300175	9614
52	1677	1.109367375	9678
52	1695	1.109434575	9742
52	1713	1.109501775	9806
52	1729	1.109568975	9870
52	1753	1.109636175	9934
52	1816	1.109703375	9998
52	2244	1.110194575	10592
52	2296	1.110685775	11186
52	2361	1.111176975	11780
52	2426	1.111668175	12374
52	2491	1.112159375	12968
52	2556	1.112650575	13562
52	2621	1.113141775	14156
52	2686	1.113632975	14750
52	2751	1.114124175	15344
52	2816	1.114615375	15938
52	2881	1.115106575	16532
52	2946	1.115173775	16596
52	2964	1.115240975	16660
52	2982	1.115308175	16724
52	3000	1.115375375	16788
52	3018	1.115442575	16852
52	3036	1.115509775	16916
52	3054	1.115576975	16980
52	3106	1.115644175	17044
52	3169	1.115711375	17108
52	3231	1.115778575	17172
52	3293	1.115845775	17236
52	3631	1.116336975	17830
52	3693	1.116828175	18424
52	3755	1.117319375	19018
52	3817	1.117810575	19612
52	3879	1.118301775	20206
52	3941	1.118792975	20800
52	4003	1.119284175	21394
56	26	1.0000672	1
56	80	1.00034	2
56	143	1.0006199875	3
56	178	1.1004912	4
56	291	1.1016356875	5
56	320	1.1021268875	6
56	365	1.1021940875	7
56	408	1.1026180875	8
56	570	1.1031092875	9
56	592	1.1036004875	10
56	657	1.1040916875	11
56	722	1.1045828875	12
56	765	1.1046500875	13
56	796	1.1047172875	14
56	812	1.1047844875	15
56	998	1.105236175	16
56	1161	1.105727375	17
56	1194	1.106218575	18
56	1259	1.106709775	19
56	1324	1.107200975	20
56	1389	1.107692175	21
56	1454	1.108183375	22
56	1519	1.108674575	23
56	1589	1.109165775	24
56	1641	1.109232975	25
56	1659	1.109300175	26
56	1677	1.109367375	27
56	1695	1.109434575	28
56	1713	1.109501775	29
56	1729	1.109568975	30
56	1753	1.109636175	31
56	1816	1.109703375	32
56	2244	1.110194575	33
56	2296	1.110685775	34
56	2361	1.111176975	35
56	2426	1.111668175	36
56	2491	1.112159375	37
56	2556	1.112650575	38
56	2621	1.113141775	39
56	2686	1.113632975	40
56	2751	1.114124175	41
56	2816	1.114615375	42
56	2881	1.115106575	43
56	2946	1.115173775	44
56	2964	1.115240975	45
56	2982	1.115308175	46
56	3000	1.115375375	47
56	3018	1.115442575	48
56	3036	1.115509775	49
56	3054	1.115576975	50
56	3106	1.115644175	51
56	3169	1.115711375	52
56	3231	1.115778575	53
56	3293	1.115845775	54
56	3631	1.116336975	55
56	3693	1.116828175	56
56	3755	1.117319375	57
56	3817	1.117810575	58
56	3879	1.118301775	59
56	3941	1.118792975	60
56	4003	1.119284175	61
61	38	1.0001364	1
63	38	1.0001364	64
73	44	1.0001364	1
75	44	1.0001364	64
85	50	1.0001364	1
85	86	1.0004092	2
85	149	1.0006891875	3
85	184	1.1009844	4
85	322	1.1021288875	5
85	410	1.1026200875	6
85	452	1.1026872875	7
85	509	1.1027544875	8
85	594	1.1036024875	9
85	659	1.1040936875	10
85	724	1.1045848875	11
85	830	1.1050760875	12
85	868	1.1051432875	13
85	940	1.1052104875	14
85	1011	1.1052776875	15
85	1073	1.1053448875	16
85	1196	1.106220575	17
85	1261	1.106711775	18
85	1326	1.107202975	19
85	1391	1.107694175	20
85	1456	1.108185375	21
85	1521	1.108676575	22
85	1593	1.109167775	23
85	1773	1.109658975	24
85	1836	1.109726175	25
85	1907	1.109793375	26
85	1969	1.109860575	27
85	2031	1.109927775	28
85	2093	1.109994975	29
85	2151	1.110062175	30
85	2209	1.110129375	31
85	2246	1.110196575	32
85	2298	1.110687775	33
85	2363	1.111178975	34
85	2428	1.111670175	35
85	2493	1.112161375	36
85	2558	1.112652575	37
85	2623	1.113143775	38
85	2688	1.113634975	39
85	2753	1.114126175	40
85	2818	1.114617375	41
85	2883	1.115108575	42
85	3060	1.115599775	43
85	3125	1.115666975	44
85	3187	1.115734175	45
85	3249	1.115801375	46
85	3311	1.115868575	47
85	3364	1.115935775	48
85	3408	1.116002975	49
85	3452	1.116070175	50
85	3496	1.116137375	51
85	3540	1.116204575	52
85	3584	1.116271775	53
85	3633	1.116338975	54
85	3695	1.116830175	55
85	3757	1.117321375	56
85	3819	1.117812575	57
85	3881	1.118303775	58
85	3943	1.118794975	59
85	4005	1.119286175	60
86	61	1.0002036	1
86	121	1.0004835875	2
86	251	1.1010752875	3
86	280	1.1015664875	4
86	300	1.1020576875	5
86	370	1.102219775	6
86	490	1.102710975	7
86	581	1.103202175	8
86	635	1.103693375	9
86	700	1.104184575	10
86	774	1.104675775	11
86	805	1.104742975	12
86	819	1.104810175	13
86	826	1.104877375	14
86	906	1.105166975	15
86	1150	1.105658175	16
86	1172	1.106149375	17
86	1237	1.106640575	18
86	1302	1.107131775	19
86	1367	1.107622975	20
86	1432	1.108114175	21
86	1497	1.108605375	22
86	1562	1.109096575	23
86	1584	1.109163775	24
86	1636	1.109230975	25
86	1654	1.109298175	26
86	1672	1.109365375	27
86	1690	1.109432575	28
86	1708	1.109499775	29
86	1724	1.109566975	30
86	1876	1.1097498625	31
86	2285	1.1102410625	32
86	2339	1.1107322625	33
86	2404	1.1112234625	34
86	2469	1.1117146625	35
86	2534	1.1122058625	36
86	2599	1.1126970625	37
86	2664	1.1131882625	38
86	2729	1.1136794625	39
86	2794	1.1141706625	40
86	2859	1.1146618625	41
86	2924	1.1151530625	42
86	2955	1.1152202625	43
86	2973	1.1152874625	44
86	2991	1.1153546625	45
86	3009	1.1154218625	46
86	3027	1.1154890625	47
86	3045	1.1155562625	48
86	3093	1.1156234625	49
86	3156	1.1156906625	50
86	3218	1.1157578625	51
86	3280	1.1158250625	52
86	3342	1.1158922625	53
86	3672	1.1163834625	54
86	3734	1.1168746625	55
86	3796	1.1173658625	56
86	3858	1.1178570625	57
86	3920	1.1183482625	58
86	3982	1.1188394625	59
86	4044	1.1193306625	60
87	50	1.0001364	64
87	86	1.0004092	128
87	149	1.0006891875	192
87	184	1.1009844	786
87	322	1.1021288875	1380
87	410	1.1026200875	1974
87	452	1.1026872875	2038
87	509	1.1027544875	2102
87	594	1.1036024875	2696
87	659	1.1040936875	3290
87	724	1.1045848875	3884
87	830	1.1050760875	4478
87	868	1.1051432875	4542
87	940	1.1052104875	4606
87	1011	1.1052776875	4670
87	1073	1.1053448875	4734
87	1196	1.106220575	5328
87	1261	1.106711775	5922
87	1326	1.107202975	6516
87	1391	1.107694175	7110
87	1456	1.108185375	7704
87	1521	1.108676575	8298
87	1593	1.109167775	8892
87	1773	1.109658975	9486
87	1836	1.109726175	9550
87	1907	1.109793375	9614
87	1969	1.109860575	9678
87	2031	1.109927775	9742
87	2093	1.109994975	9806
87	2151	1.110062175	9870
87	2209	1.110129375	9934