file 81637 1272987554                                           
version 2
run ARPTest-0-20100504-16:35:14-3103
attr configname ARPTest
attr datetime 20100504-16:35:14
attr experiment ARPTest
attr inifile omnetpp.ini
attr iterationvars ""
attr iterationvars2 $repetition=0
attr measurement ""
attr network ARPTest
attr processid 3103
attr repetition 0
attr replication #0
attr resultdir results
attr runnumber 0
attr seedset 0
vector 158  ARPTest.client.tcp  tcpRcvQueueBytes  ETV
158	77804 2435 16 4051 1 1.1193326625 104 0 3216 19296 41945216
vector 146  ARPTest.client.tcp  "advertised window"  ETV
146	66428 2069 16 4051 1 1.1193326625 74 7504 271008 19349960 5126697267648
vector 145  ARPTest.client.tcp  "receive window"  ETV
145	64531 1897 16 4051 1 1.1193326625 73 7504 7504 547792 4110631168
vector 148  ARPTest.client.tcp  "sent ack"  ETV
148	69615 2038 16 4051 1 1.1193326625 73 0 263504 18544560 4777907998336
vector 4  ARPTest.client.eth[0].mac  framesSent  ETV
4	6609 1341 25 4062 1.0000672 1.119775375 62 1 62 1953 81375
vector 6  ARPTest.client.eth[0].mac  bytesSent  ETV
6	9257 1499 25 4062 1.0000672 1.119775375 62 64 21988 673542 9768387900
vector 50  ARPTest.switch.mac[0]  framesReceivedOK  ETV
50	20584 1380 26 4003 1.0000672 1.119284175 61 1 61 1891 77531
vector 52  ARPTest.switch.mac[0]  bytesReceivedOK  ETV
52	23479 1535 26 4003 1.0000672 1.119284175 61 64 21394 651554 9284915756
vector 56  ARPTest.switch.mac[0]  framesPassedToHL  ETV
56	25014 1380 26 4003 1.0000672 1.119284175 61 1 61 1891 77531
vector 48  ARPTest.switch.relayUnit  "buffer level"  ETV
48	13688 5530 27 4056 1.0000672 1.1193326625 242 0 658 43620 23694984
vector 61  ARPTest.switch.mac[1]  framesSent  ETV
61	26394 18 38 38 1.0001364 1.0001364 1 1 1 1 1
vector 63  ARPTest.switch.mac[1]  bytesSent  ETV
63	26412 19 38 38 1.0001364 1.0001364 1 64 64 64 4096
vector 21  ARPTest.host1.eth[0].mac  framesReceivedOK  ETV
21	13578 18 39 39 1.0001364 1.0001364 1 1 1 1 1
vector 23  ARPTest.host1.eth[0].mac  bytesReceivedOK  ETV
23	13596 19 39 39 1.0001364 1.0001364 1 64 64 64 4096
vector 27  ARPTest.host1.eth[0].mac  framesPassedToHL  ETV
27	13615 18 39 39 1.0001364 1.0001364 1 1 1 1 1
vector 73  ARPTest.switch.mac[2]  framesSent  ETV
73	26431 18 44 44 1.0001364 1.0001364 1 1 1 1 1
vector 75  ARPTest.switch.mac[2]  bytesSent  ETV
75	26449 19 44 44 1.0001364 1.0001364 1 64 64 64 4096
vector 37  ARPTest.host2.eth[0].mac  framesReceivedOK  ETV
37	13633 18 45 45 1.0001364 1.0001364 1 1 1 1 1
vector 39  ARPTest.host2.eth[0].mac  bytesReceivedOK  ETV
39	13651 19 45 45 1.0001364 1.0001364 1 64 64 64 4096
vector 43  ARPTest.host2.eth[0].mac  framesPassedToHL  ETV
43	13670 18 45 45 1.0001364 1.0001364 1 1 1 1 1
vector 85  ARPTest.switch.mac[3]  framesSent  ETV
85	26468 1362 50 4005 1.0001364 1.119286175 60 1 60 1830 73810
vector 87  ARPTest.switch.mac[3]  bytesSent  ETV
87	29217 1514 50 4005 1.0001364 1.119286175 60 64 20800 630160 8827212520
vector 106  ARPTest.router.eth[0].mac  framesReceivedOK  ETV
106	38420 1422 51 4006 1.0001364 1.119286175 60 1 60 1830 73810
vector 108  ARPTest.router.eth[0].mac  bytesReceivedOK  ETV
108	41441 1574 51 4006 1.0001364 1.119286175 60 64 20800 630160 8827212520
vector 112  ARPTest.router.eth[0].mac  framesPassedToHL  ETV
112	43015 1422 51 4006 1.0001364 1.119286175 60 1 60 1830 73810
vector 105  ARPTest.router.eth[0].mac  framesSent  ETV
105	36973 1447 60 4041 1.0002036 1.1193306625 60 1 60 1830 73810
vector 107  ARPTest.router.eth[0].mac  bytesSent  ETV
107	39842 1599 60 4041 1.0002036 1.1193306625 60 64 20800 616910 8531753420
vector 86  ARPTest.switch.mac[3]  framesReceivedOK  ETV
86	27830 1387 61 4044 1.0002036 1.1193306625 60 1 60 1830 73810
vector 88  ARPTest.switch.mac[3]  bytesReceivedOK  ETV
88	30731 1539 61 4044 1.0002036 1.1193306625 60 64 20800 616910 8531753420
vector 92  ARPTest.switch.mac[3]  framesPassedToHL  ETV
92	32270 1387 61 4044 1.0002036 1.1193306625 60 1 60 1830 73810
vector 49  ARPTest.switch.mac[0]  framesSent  ETV
49	19218 1366 67 4046 1.0002728 1.1193326625 59 1 59 1770 70210
vector 51  ARPTest.switch.mac[0]  bytesSent  ETV
51	21964 1515 67 4046 1.0002728 1.1193326625 59 64 20206 596110 8099113420
vector 5  ARPTest.client.eth[0].mac  framesReceivedOK  ETV
5	7950 1307 68 4047 1.0002728 1.1193326625 59 1 59 1770 70210
vector 7  ARPTest.client.eth[0].mac  bytesReceivedOK  ETV
7	10756 1456 68 4047 1.0002728 1.1193326625 59 64 20206 596110 8099113420
vector 11  ARPTest.client.eth[0].mac  framesPassedToHL  ETV
11	12212 1366 68 4047 1.0002728 1.1193326625 59 1 59 1770 70210
vector 126  ARPTest.server.tcp  "rcvd seq"  ETV
126	53358 1757 101 4026 1.00041279375 1.11930639375 59 250000 268225 15279090 3958585202378
vector 127  ARPTest.server.tcp  "rcvd ack"  ETV
127	55115 1752 101 4026 1.00041279375 1.11930639375 59 0 263504 14873192 3815044415168
vector 123  ARPTest.server.tcp  "advertised window"  ETV
123	47885 2171 101 4026 1.00041279375 1.11930639375 73 257505 271441 19372993 5142852545913
vector 121  ARPTest.server.tcp  "send window"  ETV
121	45137 750 101 3650 1.00041279375 1.11634244375 27 7504 7504 202608 1520370432
vector 135  ARPTest.server.tcp  tcpRcvQueueBytes  ETV
135	59897 2606 101 4026 1.00041279375 1.11930639375 104 0 3216 19296 41945216
vector 122  ARPTest.server.tcp  "receive window"  ETV
122	45887 1998 101 4026 1.00041279375 1.11930639375 72 7504 7504 540288 4054321152
vector 125  ARPTest.server.tcp  "sent ack"  ETV
125	51216 2142 101 4026 1.00041279375 1.11930639375 72 250001 263937 18575200 4793712798136
vector 149  ARPTest.client.tcp  "rcvd seq"  ETV
149	71653 1646 132 4051 1.0005527875 1.1193326625 58 250103 267792 15005047 3883616032977
vector 150  ARPTest.client.tcp  "rcvd ack"  ETV
150	73299 1646 132 4051 1.0005527875 1.1193326625 58 250001 263937 14897770 3827667185434
vector 144  ARPTest.client.tcp  "send window"  ETV
144	63820 711 132 3679 1.0005527875 1.1163854625 27 7504 7504 202608 1520370432
vector 128  ARPTest.server.tcp  "unacked bytes"  ETV
128	56867 1442 164 3650 1.00069265625 1.11634244375 52 0 7504 285688 1841280064
vector 137  ARPTest.server.tcp  cwnd  ETV
137	62503 732 164 3650 1.00069265625 1.11634244375 26 1072 14472 202072 1990673984
vector 129  ARPTest.server.tcp  "rcvd dupAcks"  ETV
129	58309 1438 164 4026 1.00069265625 1.11930639375 58 0 0 0 0
vector 147  ARPTest.client.tcp  "sent seq"  ETV
147	68497 1118 167 3679 1.1 1.1163854625 40 250001 270905 10418120 2714961896040
vector 151  ARPTest.client.tcp  "unacked bytes"  ETV
151	74945 1382 167 3679 1.1 1.1163854625 53 0 7504 286224 1841567360
vector 124  ARPTest.server.tcp  "sent seq"  ETV
124	50056 1160 202 3650 1.10100461875 1.11634244375 39 250104 270472 10151232 2643663117056
vector 119  ARPTest.server.ppp[0].queue  "queue length"  ETV
119	44437 700 210 2178 1.10100461875 1.110074753125 28 0 2 16 18
vector 97  ARPTest.net.ppp[0].queue  "queue length"  ETV
97	33657 580 236 2188 1.101024571875 1.1100848625 26 0 1 13 13
vector 103  ARPTest.router.eth[0].queue  "queue length"  ETV
103	34237 2662 242 4041 1.101025571875 1.1193306625 111 0 10 636 4780
vector 162  ARPTest.client.tcp  "measured RTT"  ETV
162	80933 164 264 3178 1.1011444875 1.1157134625 5 0.0011444875 0.0060564875 0.0157134625 6.6560244232969e-05
vector 163  ARPTest.client.tcp  "smoothed RTT"  ETV
163	81097 180 264 3178 1.1011444875 1.1157134625 5 0.000143060937 0.001698404395 0.003824631712 4.5157143857921e-06
vector 164  ARPTest.client.tcp  RTTVAR  ETV
164	81277 180 264 3178 1.1011444875 1.1157134625 5 0.386138637357 0.656393060938 2.560616773702 1.3571302350827
vector 165  ARPTest.client.tcp  RTO  ETV
165	81457 180 264 3178 1.1011444875 1.1157134625 5 1.546252953823 2.625715304689 10.24629172652 21.727706109045
vector 160  ARPTest.client.tcp  cwnd  ETV
160	80239 694 264 3679 1.1011444875 1.1163854625 26 1072 14472 202072 1990673984
vector 152  ARPTest.client.tcp  "rcvd dupAcks"  ETV
152	76327 1333 264 4051 1.1011444875 1.1193326625 57 0 0 0 0
vector 2  ARPTest.client.eth[0].queue  "queue length"  ETV
2	4005 2541 272 4062 1.1011444875 1.119775375 120 0 10 618 4372
vector 139  ARPTest.server.tcp  "measured RTT"  ETV
139	63235 135 467 3140 1.10269075625 1.11567044375 4 0.0016861375 0.0059408 0.014665825 6.5170958146562e-05
vector 140  ARPTest.server.tcp  "smoothed RTT"  ETV
140	63370 150 467 3140 1.10269075625 1.11567044375 4 0.000210767187 0.001620097743 0.003325140782 3.9163516628248e-06
vector 141  ARPTest.server.tcp  RTTVAR  ETV
141	63520 150 467 3140 1.10269075625 1.11567044375 4 0.441057051113 0.656460767188 2.175561424188 1.2091046289807
vector 142  ARPTest.server.tcp  RTO  ETV
142	63670 150 467 3140 1.10269075625 1.11567044375 4 1.765848302195 2.626053835939 8.705570837534 19.358798975573
vector 3  ARPTest.client.eth[0].queue  drops  ETV
3	6546 63 2092 2208 1.109992975 1.110127375 3 1 1 3 3
vector 104  ARPTest.router.eth[0].queue  drops  ETV
104	36899 74 2198 2281 1.110094971875 1.1102202625 3 1 1 3 3
vector 133  ARPTest.server.tcp  "rcvd oooseg"  ETV
133	59747 150 3716 4026 1.11685039375 1.11930639375 6 1 6 21 91
vector 156  ARPTest.client.tcp  "rcvd oooseg"  ETV
156	77660 144 3741 4051 1.1168766625 1.1193326625 6 1 6 21 91
